267
Converged     Job 0: Energy -6.5127702367563170e+03 @ (2.405443)
   N      -9.1179999977  -21.2199999876  177.7570000335
   H      -9.1876458619  -20.7836696199  178.6766774177
   H     -10.0194904283  -21.6643755140  177.5864663071
   C      -8.0619999339  -22.2319999176  177.7789999459
   H      -8.0279800118  -22.7219593975  176.7977849858
   C      -6.6875325000  -21.5859740389  178.0389838490
   H      -6.7503925514  -20.9947249280  178.9618903355
   H      -5.9729504728  -22.3933809075  178.2250148440
   C      -6.1744685865  -20.7272602261  176.9102260411
   C      -6.3061781944  -19.3334836332  176.9177368423
   H      -6.8963321488  -18.8583551737  177.6968542158
   C      -5.6409296426  -18.5380290495  175.9873106937
   H      -5.7036008810  -17.4544767004  176.0328097584
   C      -4.8023899083  -19.1319470654  175.0332446540
   O      -4.0360383313  -18.3267694276  174.2519382028
   H      -3.3388381245  -18.8738850485  173.7963580788
   C      -4.7678270714  -20.5298766598  174.9293610903
   H      -4.1489049473  -20.9921665024  174.1672566525
   C      -5.4487334073  -21.3068500107  175.8633407707
   H      -5.3523662990  -22.3884218383  175.8187920004
   C      -8.2989999800  -23.3439999805  178.7919999826
   H      -9.0953317787  -23.2140340944  179.5515360784
   O      -7.5929999912  -24.3579999896  178.7470000164
   N      -4.6169999983  -25.8929999952  181.7979999954
   H      -3.7292735598  -26.3769775222  181.9147885554
   H      -4.6626282452  -25.2120518990  182.5560277005
   C      -4.6079900009  -25.1680000013  180.5259999857
   H      -5.5396667308  -24.6050830709  180.4158413664
   C      -3.3933896886  -24.1869474240  180.3944900776
   H      -3.5940620966  -23.3373600462  181.0560689369
   H      -2.5267883781  -24.7123185917  180.8099056320
   C      -3.0459288257  -23.6795506678  179.0103547536
   C      -2.4265202292  -24.5153074584  178.0623511085
   H      -2.2157771717  -25.5503898970  178.3076802224
   C      -2.0788300220  -24.0369939327  176.7971264485
   H      -1.6042037376  -24.7044868681  176.0833817749
   C      -2.3246497922  -22.7060199057  176.4596350429
   H      -2.0542638184  -22.3293004753  175.4804078743
   C      -2.9096511140  -21.8566112602  177.4001540160
   H      -3.0783818322  -20.8149589861  177.1616745503
   C      -3.2773814420  -22.3425195291  178.6580464820
   H      -3.7178431029  -21.6632373735  179.3794950711
   C      -4.5480000023  -26.2100000066  179.4150000008
   H      -5.2217118262  -26.1054794063  178.5480230076
   O      -3.7239999987  -27.1289999992  179.4699999992
   N       5.4689999956  -19.5070000233  169.0579999933
   H       5.0441136248  -19.6889840628  169.9639609414
   H       4.7130796656  -19.2939972120  168.4094804683
   C       6.3689999576  -18.3690000092  169.1699900570
   H       7.0238923877  -18.3231844043  168.2901702243
   C       5.7062105631  -16.9571986145  169.3116971332
   H       6.4901007198  -16.1945461895  169.2403436724
   H       5.0659798707  -16.8381864776  168.4286527544
   C       4.9107886533  -16.7525603328  170.5811685290
   C       5.3493237490  -15.8362515151  171.5470712317
   H       6.2536721180  -15.2603632549  171.3654537413
   C       4.6323521885  -15.6380417855  172.7287196887
   H       4.9718893777  -14.8966979964  173.4457146954
   C       3.4804484145  -16.3861484883  172.9826094095
   H       2.9378578661  -16.2396701493  173.9094266351
   C       3.0307052109  -17.3041186636  172.0311672332
   H       2.1311844229  -17.8869127095  172.2100089742
   C       3.7295870085  -17.4692912261  170.8335416209
   H       3.3467422288  -18.1559491921  170.0856816434
   C       7.2349899866  -18.6279999996  170.3940000229
   H       8.1710725894  -18.0461683440  170.4828858211
   O       6.8820000021  -19.3885500249  171.2820999933
   N       8.6790000173  -18.1710000779  173.9089999774
   H       8.1726391301  -17.8652841811  173.0812481463
   H       8.5523324403  -19.1782541171  173.9868311144
   C       8.1670000871  -17.4899997345  175.0909997830
   H       8.6137731228  -16.4881107270  175.1691150656
   C       6.6231940312  -17.2615975885  175.1266274393
   H       6.3559382155  -16.6744967610  176.0093553213
   H       6.3701238719  -16.6511013865  174.2555521968
   C       5.8133555571  -18.5113179774  175.1308330043
   N       5.5647933208  -19.2975647028  174.0144500026
   H       5.9248968752  -19.1493237462  173.0740987697
   C       4.8119461042  -20.3553043794  174.3866905058
   H       4.4904135133  -21.1405656781  173.7197739133
   N       4.5658564825  -20.2878513684  175.6892387440
   C       5.1856038050  -19.1505848405  176.1693174091
   H       5.1429691486  -18.8760308792  177.2098358981
   C       8.5619999272  -18.2560000234  176.3419998823
   H       8.5009032092  -17.7180902923  177.3040684623
   O       8.8609998892  -19.4560000098  176.3029999969
   N       6.4539999770  -18.9330000113  179.9349999491
   H       7.0119186005  -18.8925463204  180.7899384486
   C       5.0499999778  -18.8629997950  180.3249899984
   H       6.6988809405  -18.0879857385  179.4176743779
   H       4.4512748918  -18.6599062363  179.4410626249
   C       4.6367806927  -20.2238683313  180.8737390460
   H       5.2617965676  -20.5142448774  181.7238860495
   H       3.5946177104  -20.1944619107  181.2158363311
   C       4.7307927064  -21.2837621135  179.7824218963
   O       4.3398226168  -20.8715870934  178.6172459812
   O       5.0837088738  -22.4435264490  180.0637168462
   C       4.8240000860  -17.7529999960  181.3450000397
   O       5.6179999862  -17.5580000271  182.2750000481
   N       3.7500000386  -16.9870000312  181.1379999714
   H       3.1857799885  -17.1826413119  180.2987861304
   C       3.3699999775  -15.8430001194  181.9809999889
   H       2.5376816458  -15.3666280498  181.4425207097
   C       2.8820610431  -16.2652176195  183.3694255469
   H       2.0415514967  -16.9570675036  183.2668271799
   H       3.6894779087  -16.7636162274  183.9109869967
   H       2.5595779941  -15.3908679250  183.9392352410
   C       4.4379999109  -14.7550000042  182.0469999884
   H       5.1643752662  -14.7030861547  181.2154573379
   O       4.4299999873  -13.9270000190  182.9699999981
   N       6.6309999865  -25.1620000037  184.9889999730
   H       7.5143324014  -25.5666849061  184.6758387227
   H       6.7419698165  -24.1515705064  184.9023476604
   C       5.5939999635  -25.5729999982  184.0539999717
   H       4.6189840893  -25.2467042483  184.4390960082
   C       5.7096571929  -24.9803050811  182.6159814085
   H       6.7268807659  -25.2096697512  182.2561655006
   C       4.6845111969  -25.5786554145  181.6518387718
   H       3.6783695484  -25.4923065273  182.0740722649
   H       4.7053535671  -25.0427110734  180.6972793662
   H       4.8870883884  -26.6362692392  181.4484022551
   O       5.5318145514  -23.5729638478  182.7440735489
   H       5.4419711265  -23.1870497322  181.8437593326
   C       5.5810000019  -27.0930000032  183.9419999942
   H       4.6035864426  -27.6061092660  183.9028148847
   O       6.6349999984  -27.7239999994  183.8349999904
   N      -5.0839998015  -14.2029999482  171.9329999541
   H      -5.5099552350  -14.2769424718  172.8577164701
   H      -5.1213471586  -13.2121995127  171.6938860520
   C      -5.9039996574  -14.9570001519  170.9950000236
   H      -5.5350368196  -14.7552044917  169.9825874538
   C      -5.8254118525  -16.4735696851  171.2709505992
   H      -6.3428458495  -16.6759646861  172.2171437915
   H      -6.3815387923  -17.0022189616  170.4856635087
   C      -4.3943401771  -17.0234133710  171.3742178261
   H      -3.8915855798  -16.5391056320  172.2163064691
   H      -4.4680143438  -18.0852317290  171.6341085427
   C      -3.5405133186  -16.8436860224  170.1160866425
   H      -3.9994490908  -17.3527882709  169.2571149476
   H      -3.4838344226  -15.7805850081  169.8557555647
   C      -2.0986237535  -17.3206121598  170.2809843835
   H      -1.4929016627  -17.0559301500  169.4116809156
   H      -1.6381362730  -16.8839969049  171.1715925113
   N      -1.9967656091  -18.8053953247  170.4461456011
   H      -2.4098492686  -19.3086340377  169.6564836805
   H      -1.0193227658  -19.1231396286  170.5780727959
   H      -2.4018650878  -19.1617861640  171.3591951146
   C      -7.3509999085  -14.4880001364  171.0740001202
   H      -7.8943206861  -14.2644282512  170.1354977414
   O      -7.9139999630  -14.3709999571  172.1700000270
   N       7.0230000100  -12.3300000269  173.6310100250
   H       7.9238069825  -12.6728034273  173.9646311295
   H       7.2052955082  -11.8590767734  172.7459259857
   C       6.4609898825  -11.3960000642  174.5889999858
   H       5.5040994387  -11.0275422485  174.2021365552
   C       6.2267603432  -12.0637273510  175.9652495091
   H       7.1849711853  -12.4608808159  176.3252958585
   H       5.9457377729  -11.2642322551  176.6617728959
   C       5.1763885168  -13.1523980890  176.0427969795
   C       3.9530015678  -13.0628292280  175.3651825018
   H       3.7707244642  -12.2382199091  174.6817652450
   C       2.9515668753  -14.0150025911  175.5683483407
   H       2.0095002477  -13.9243885410  175.0342398011
   C       3.1535221204  -15.0740005002  176.4563761620
   H       2.3774075418  -15.8095485083  176.6382924519
   C       4.3724176941  -15.1826866769  177.1279798161
   H       4.5243682769  -16.0047003488  177.8206690401
   C       5.3741250733  -14.2333837896  176.9147621289
   H       6.3188149062  -14.3189373218  177.4474850755
   C       7.3000100063  -10.1510100650  174.8510000694
   H       8.3625322132  -10.1468559060  174.5334231010
   O       6.7720000025   -9.1960000029  175.4139999926
   N      10.4660000434  -21.5540000046  175.2930000381
   H       9.6906028635  -20.9248455884  175.4621739102
   H      10.8835923007  -21.8318517171  176.1768092115
   C      10.0460094848  -22.7199998836  174.5270002096
   H      10.9010535678  -23.2661548820  174.1110757660
   C       9.1844141062  -23.7490066276  175.3695841037
   H       8.8173617244  -24.5558846364  174.7257040870
   H       9.8592955480  -24.2056792270  176.1029873877
   C       8.0186117397  -23.1133561879  176.0692740752
   N       8.1696096131  -22.2461077808  177.1438204564
   H       9.0461520315  -21.9379513924  177.5412392201
   C       6.9615867056  -21.7816701762  177.5182618996
   H       6.8153221891  -21.0426693021  178.2909593445
   N       6.0165301179  -22.3288415110  176.7643279032
   C       6.6596719543  -23.1549203172  175.8531549915
   H       6.1007965427  -23.7129655037  175.1191781570
   C       9.1300000358  -22.2709999917  173.4009999562
   H       8.8397893657  -23.0279259826  172.6511644867
   O       8.6790001315  -21.1229999574  173.3609998748
   N      -1.7690000393  -28.7069999374  180.6850100141
   H      -2.5662319924  -28.0925037744  180.5473117006
   H      -1.4515008652  -28.9468525786  179.7463157375
   C      -0.7059899778  -27.9489899314  181.3349999341
   H       0.1675037059  -28.6042990423  181.4539837131
   C      -0.2496381073  -26.7117970134  180.5291878024
   H       0.1427205902  -27.0795065032  179.5717455606
   H      -1.1419866410  -26.1196369161  180.3091439061
   C       0.8023354726  -25.8545894026  181.2318153621
   H       0.3456466367  -25.2894042023  182.0537845165
   H       1.5701584213  -26.5021925190  181.6741282295
   C       1.5224328188  -24.8901847156  180.2957607258
   H       2.2149666076  -24.2875372787  180.8812008901
   H       2.1075313541  -25.4452816067  179.5531451261
   N       0.6060623593  -23.9752575138  179.6174685045
   H      -0.1796547872  -24.3629408466  179.1080780513
   C       0.9049509417  -22.6933956345  179.3654238638
   N       2.0598979856  -22.1673341952  179.8048025588
   H       2.2124691395  -21.2038989615  179.4959595315
   H       2.8812420437  -22.7593551502  179.7465911705
   N       0.0513635937  -21.8993214894  178.7274842266
   H       0.3772839807  -20.9578608966  178.5032965992
   H      -0.9282649280  -22.1277072302  178.6280694960
   C      -1.1289999476  -27.5199999959  182.7280000005
   H      -0.4157288837  -27.6473036247  183.5610237563
   O      -2.2249999866  -26.9880000002  182.9210000079
  Fe       3.9525003538  -21.8166551251  176.8971098401
   O       2.3649747337  -21.4747325994  176.6921918384
   C       3.5097540429  -24.2944044561  176.6151514660
   O       3.6809525581  -23.6746737917  175.5299512324
   O       3.6088180377  -23.6724054952  177.7291855080
   C       3.1637328932  -25.7618403315  176.6471618562
   H       2.1472495086  -25.8723957397  177.0417031852
   H       3.8404141706  -26.2883711981  177.3270245096
   H       3.2176851027  -26.2012395113  175.6498411648
   N      -4.9040000468  -20.3469999969  184.2609999268
   H      -5.8679149268  -20.6715648926  184.1648151372
   H      -4.8686137129  -19.9092871008  185.1830495071
   C      -4.6759998452  -19.3319999814  183.2409998919
   H      -3.6956756413  -18.8746565778  183.4083442120
   C      -4.6951842806  -20.0250728978  181.8485154513
   H      -4.3957333603  -21.0612747968  182.0488309885
   H      -5.7262933298  -20.0630332749  181.4788748069
   C      -3.7811207501  -19.4470733039  180.7981064493
   C      -2.3934703506  -19.6258721022  180.8956451265
   H      -1.9792382097  -20.1161061639  181.7742231004
   C      -1.5323987975  -19.2237020087  179.8779911374
   H      -0.4604555009  -19.3656685238  179.9631722763
   C      -2.0623536361  -18.6473389632  178.7156889867
   O      -1.2897985077  -18.2941974673  177.6414945818
   C      -3.4342433759  -18.4036224633  178.6282106626
   H      -3.8313221913  -17.9571771044  177.7246611479
   C      -4.2803212257  -18.8040734372  179.6610713231
   H      -5.3510350808  -18.6514844125  179.5599472474
   C      -5.7570000572  -18.2540000732  183.3010000442
   H      -5.4517692899  -17.1964570324  183.1794900687
   O      -6.9450000165  -18.5480000196  183.4519999487
   H      -0.4981760940  -18.8699740690  177.5540020605
   O      -2.2120754210  -19.7685869245  172.9185307730
   C      -0.9524194299  -19.9738473215  173.0881042953
   O      -0.1069262333  -19.9581328005  172.1610776444
   C      -0.4724543348  -20.2409769924  174.5183340273
   C       0.7022714211  -19.3367587286  174.9210199162
   C       0.3343286410  -17.8634604387  174.6620148682
   N       0.9896934847  -19.5289044671  176.3627700853
   C       1.9435593732  -18.8370392846  176.8402980936
   C       2.0902588270  -18.6448276306  178.3284251991
   O       1.5579619381  -19.4691209954  179.1201659559
   O       2.6866909940  -17.5737792769  178.6291690239
   H       2.6263587073  -18.2496883463  176.2200293424
   H       1.5934380661  -19.5983960283  174.3364401514
   H      -0.1684931228  -21.2913868917  174.6045849983
   H      -1.2998440823  -20.0728908984  175.2140043728
   H       1.1518949599  -17.1937658824  174.9388937317
   H      -0.5474722076  -17.5924028996  175.2520227364
   H       0.1118895927  -17.7059116996  173.6027622799
267
Converged     Job 1: Energy -6.5127679099518209e+03 @ (2.359244)
   N      -9.1179999859  -21.2199999906  177.7570000299
   H      -9.1884771207  -20.7846319429  178.6770651163
   H     -10.0193641612  -21.6641579956  177.5852097465
   C      -8.0619999332  -22.2319999175  177.7789997808
   H      -8.0271210223  -22.7216710807  176.7977165382
   C      -6.6884095070  -21.5851802062  178.0406973090
   H      -6.7532856257  -20.9926260483  178.9626058116
   H      -5.9735726703  -22.3918247554  178.2291526549
   C      -6.1736160252  -20.7283062012  176.9114771660
   C      -6.2987498620  -19.3339892151  176.9193722035
   H      -6.8869925060  -18.8561964178  177.6983144158
   C      -5.6283102738  -18.5414898647  175.9900709221
   H      -5.6850888635  -17.4576450592  176.0362616402
   C      -4.7914628569  -19.1393682264  175.0370710602
   O      -4.0178660162  -18.3383409799  174.2585562555
   H      -3.3214110350  -18.8898101682  173.8072058663
   C      -4.7657776671  -20.5373323359  174.9311460080
   H      -4.1487780395  -21.0025844754  174.1694073915
   C      -5.4512046714  -21.3112101259  175.8641917385
   H      -5.3605117863  -22.3932749161  175.8191451759
   C      -8.2989999324  -23.3439999580  178.7920000774
   H      -9.0951483655  -23.2139023817  179.5517098478
   O      -7.5930000110  -24.3580000031  178.7469999923
   N      -4.6169999980  -25.8929999919  181.7979999905
   H      -3.7292753479  -26.3769772603  181.9148044218
   H      -4.6626391835  -25.2120544588  182.5560292806
   C      -4.6079899766  -25.1680000219  180.5259999624
   H      -5.5395824186  -24.6049502509  180.4158753127
   C      -3.3931219241  -24.1872116451  180.3939265651
   H      -3.5933905242  -23.3372583205  181.0551538478
   H      -2.5265341157  -24.7125946270  180.8093494616
   C      -3.0462568058  -23.6805697544  179.0093039563
   C      -2.4297351729  -24.5174586362  178.0604038589
   H      -2.2194387606  -25.5526045854  178.3057062449
   C      -2.0847429257  -24.0403567170  176.7939717685
   H      -1.6127580216  -24.7088738610  176.0794393229
   C      -2.3299892674  -22.7093688845  176.4562299281
   H      -2.0624570840  -22.3337121531  175.4758357322
   C      -2.9107830725  -21.8585170672  177.3981263264
   H      -3.0782795057  -20.8166571766  177.1597139000
   C      -3.2762415171  -22.3432753954  178.6570756009
   H      -3.7141088048  -21.6630001652  179.3791949951
   C      -4.5480000002  -26.2100000074  179.4149999964
   H      -5.2216973853  -26.1054953562  178.5480153830
   O      -3.7239999982  -27.1289999975  179.4699999984
   N       5.4690000121  -19.5070000445  169.0580000109
   H       5.0447331199  -19.6895347836  169.9641374990
   H       4.7126741742  -19.2938613369  168.4100006151
   C       6.3689999317  -18.3690000151  169.1699901668
   H       7.0241522488  -18.3237364107  168.2902940785
   C       5.7070746550  -16.9568308309  169.3107948334
   H       6.4913099693  -16.1947477560  169.2372255569
   H       5.0655873848  -16.8386033212  168.4285461022
   C       4.9138984047  -16.7503273007  170.5812595891
   C       5.3531746004  -15.8314889394  171.5443970551
   H       6.2563376625  -15.2547333524  171.3597121812
   C       4.6383839134  -15.6320408904  172.7271524712
   H       4.9783459251  -14.8890676480  173.4422378630
   C       3.4882118793  -16.3814325719  172.9849008458
   H       2.9475026680  -16.2338359703  173.9126256308
   C       3.0380320205  -17.3021338528  172.0363412354
   H       2.1402351201  -17.8864640798  172.2184010523
   C       3.7344528150  -17.4684767216  170.8375402991
   H       3.3511760823  -18.1572924828  170.0919227960
   C       7.2349900166  -18.6279999876  170.3940000169
   H       8.1710987685  -18.0462041027  170.4828271201
   O       6.8819999978  -19.3885500313  171.2820999731
   N       8.6789999944  -18.1710000184  173.9090000088
   H       8.1736917732  -17.8640304809  173.0810572376
   H       8.5508665932  -19.1781290966  173.9860445430
   C       8.1669999860  -17.4900000442  175.0910000072
   H       8.6148679454  -16.4885690499  175.1692725873
   C       6.6235788891  -17.2590431127  175.1266994876
   H       6.3574067353  -16.6722601153  176.0100379634
   H       6.3717543878  -16.6471031657  174.2562586646
   C       5.8111639640  -18.5070911287  175.1295846330
   N       5.5633694739  -19.2929867528  174.0128177598
   H       5.9252696185  -19.1453059606  173.0730966702
   C       4.8076500039  -20.3491701073  174.3836276918
   H       4.4864532291  -21.1340783957  173.7161347263
   N       4.5590887616  -20.2813239341  175.6857147161
   C       5.1799393881  -19.1450600987  176.1667928555
   H       5.1354091543  -18.8699748495  177.2070889583
   C       8.5620000018  -18.2559999017  176.3419999821
   H       8.5010618749  -17.7180487785  177.3040480487
   O       8.8609999702  -19.4560000001  176.3029999939
   N       6.4539999960  -18.9330000067  179.9349999822
   H       7.0119106496  -18.8945085521  180.7900335557
   C       5.0499999927  -18.8629999372  180.3249899761
   H       6.6992888264  -18.0870285615  179.4194311719
   H       4.4519128126  -18.6588339880  179.4408804608
   C       4.6355964374  -20.2243814584  180.8713030547
   H       5.2603148962  -20.5170168695  181.7209090940
   H       3.5934614534  -20.1945562625  181.2134151544
   C       4.7284553623  -21.2826633861  179.7779993667
   O       4.3371434760  -20.8691846007  178.6134334746
   O       5.0811159794  -22.4429167124  180.0581551729
   C       4.8239999913  -17.7530000008  181.3450000223
   O       5.6180000094  -17.5580000030  182.2750000177
   N       3.7500000236  -16.9869999907  181.1380000000
   H       3.1852920890  -17.1825910347  180.2989229638
   C       3.3700000125  -15.8430000064  181.9809999990
   H       2.5377161314  -15.3666189146  181.4424477575
   C       2.8820020339  -16.2651103927  183.3694399096
   H       2.0414886167  -16.9569608479  183.2668558517
   H       3.6894030278  -16.7635165297  183.9110221028
   H       2.5595200040  -15.3907463886  183.9392343321
   C       4.4379999796  -14.7550000115  182.0469999991
   H       5.1643622106  -14.7030697208  181.2154406442
   O       4.4299999851  -13.9270000046  182.9700000013
   N       6.6309999995  -25.1620000038  184.9889999927
   H       7.5143638939  -25.5665932875  184.6758144540
   H       6.7419307251  -24.1515502816  184.9025526453
   C       5.5939999885  -25.5729999942  184.0539999953
   H       4.6189907176  -25.2466409473  184.4390466408
   C       5.7095458453  -24.9808049463  182.6156092248
   H       6.7267985713  -25.2102250860  182.2559430699
   C       4.6844838410  -25.5796981997  181.6516963893
   H       3.6782498782  -25.4931132278  182.0736830946
   H       4.7055228864  -25.0441741027  180.6969041320
   H       4.8870798149  -26.6373883465  181.4487108553
   O       5.5314787537  -23.5733329186  182.7426251837
   H       5.4411867213  -23.1882188887  181.8420454494
   C       5.5810000029  -27.0930000007  183.9419999963
   H       4.6035873000  -27.6061046996  183.9028132585
   O       6.6349999996  -27.7240000001  183.8349999979
   N      -5.0839998354  -14.2029999132  171.9329999039
   H      -5.5107260262  -14.2757940545  172.8574462580
   H      -5.1203179865  -13.2123634144  171.6930068178
   C      -5.9039996243  -14.9569999336  170.9949996987
   H      -5.5343905639  -14.7565202453  169.9825919676
   C      -5.8275457845  -16.4736466567  171.2731362497
   H      -6.3499120814  -16.6738988007  172.2170512634
   H      -6.3807187999  -17.0027936626  170.4861061626
   C      -4.3979433839  -17.0258898814  171.3847463785
   H      -3.8980513611  -16.5400659132  172.2276576301
   H      -4.4747685086  -18.0867588160  171.6478945977
   C      -3.5373512544  -16.8524092728  170.1303309931
   H      -3.9940033767  -17.3617977863  169.2703070792
   H      -3.4758078531  -15.7900501697  169.8679515705
   C      -2.0977986906  -17.3341586251  170.3029423289
   H      -1.4871003022  -17.0715849511  169.4364867845
   H      -1.6401847707  -16.8987098033  171.1955871741
   N      -2.0003831721  -18.8193720195  170.4682908663
   H      -2.4137619449  -19.3213526951  169.6779516784
   H      -1.0237560185  -19.1407246921  170.6016220975
   H      -2.4068903457  -19.1762585876  171.3795206486
   C      -7.3509999244  -14.4880000544  171.0740001986
   H      -7.8944554014  -14.2645644965  170.1355497180
   O      -7.9140000146  -14.3709999882  172.1699999846
   N       7.0230000066  -12.3299999944  173.6310100010
   H       7.9238169227  -12.6727964862  173.9646128747
   H       7.2052340022  -11.8591494560  172.7458738685
   C       6.4609900170  -11.3959999834  174.5889999947
   H       5.5042171567  -11.0273734139  174.2020212691
   C       6.2265562032  -12.0638686794  175.9650914620
   H       7.1843801252  -12.4626260990  176.3243939909
   H       5.9471459352  -11.2642900061  176.6621702327
   C       5.1744793891  -13.1508991133  176.0429701361
   C       3.9516777671  -13.0604051615  175.3644539006
   H       3.7711249817  -12.2365179174  174.6797365659
   C       2.9485618851  -14.0106274108  175.5684702194
   H       2.0069195002  -13.9192058551  175.0337557366
   C       3.1482558085  -15.0685880729  176.4582399792
   H       2.3705917959  -15.8022993737  176.6409306309
   C       4.3667396976  -15.1784675554  177.1304608560
   H       4.5168135998  -15.9995795112  177.8245822774
   C       5.3700627820  -14.2310838846  176.9164176673
   H       6.3142999337  -14.3173497702  177.4498294358
   C       7.3000099900  -10.1510099954  174.8509999970
   H       8.3624992335  -10.1467941498  174.5333154458
   O       6.7719999992   -9.1960000011  175.4140000007
   N      10.4659999894  -21.5539999664  175.2929999763
   H       9.6911077597  -20.9237089477  175.4602117635
   H      10.8820434400  -21.8314320981  176.1776546287
   C      10.0460100393  -22.7199999750  174.5269999786
   H      10.9009128695  -23.2666371434  174.1114420147
   C       9.1832365700  -23.7484019508  175.3693697245
   H       8.8174456602  -24.5560302786  174.7257227854
   H       9.8570787412  -24.2040806260  176.1043555777
   C       8.0160828650  -23.1120508004  176.0662112765
   N       8.1657734169  -22.2413954297  177.1381391916
   H       9.0417952945  -21.9310896034  177.5349521314
   C       6.9572574843  -21.7757132111  177.5094150302
   H       6.8101189071  -21.0346493959  178.2799901638
   N       6.0130332997  -22.3253511595  176.7562301030
   C       6.6573118905  -23.1545014265  175.8486851764
   H       6.0992839989  -23.7149793637  175.1158786178
   C       9.1299999705  -22.2710000366  173.4010000349
   H       8.8396880647  -23.0279726395  172.6512603611
   O       8.6790000297  -21.1229999886  173.3609999709
   N      -1.7689999663  -28.7070000416  180.6850100146
   H      -2.5663408776  -28.0925704239  180.5476293343
   H      -1.4516682403  -28.9465082474  179.7461739681
   C      -0.7059900541  -27.9489898952  181.3350000156
   H       0.1675907878  -28.6041840066  181.4539290815
   C      -0.2500649997  -26.7117980594  180.5289942882
   H       0.1423839735  -27.0795547178  179.5716065865
   H      -1.1426378383  -26.1200246940  180.3088437252
   C       0.8014751257  -25.8539373333  181.2313746846
   H       0.3444913510  -25.2887275498  182.0531612335
   H       1.5696192828  -26.5010080043  181.6739069890
   C       1.5211134636  -24.8895687237  180.2950043065
   H       2.2130319962  -24.2861642173  180.8804287354
   H       2.1068089939  -25.4448001758  179.5528759249
   N       0.6043798412  -23.9756381743  179.6156642516
   H      -0.1800599199  -24.3649326155  179.1055101188
   C       0.9051130238  -22.6950383127  179.3587484201
   N       2.0594765159  -22.1682760157  179.7986267457
   H       2.2136932488  -21.2062658166  179.4861602522
   H       2.8804457785  -22.7611839168  179.7442395083
   N       0.0539252024  -21.9026298997  178.7157994018
   H       0.3828939433  -20.9643746036  178.4836240620
   H      -0.9252926191  -22.1307740468  178.6123423079
   C      -1.1289999724  -27.5200000029  182.7280000430
   H      -0.4157158500  -27.6473040318  183.5610160225
   O      -2.2250000440  -26.9880000331  182.9209999819
  Fe       3.9474215589  -21.8133774093  176.8914338032
   O       2.3582550548  -21.4731572118  176.6859280430
   C       3.5049858139  -24.2916490592  176.6086272123
   O       3.6757870242  -23.6717418323  175.5234902608
   O       3.6039066449  -23.6700852731  177.7228118317
   C       3.1596302452  -25.7593393124  176.6404102911
   H       2.1436286881  -25.8704949297  177.0360279957
   H       3.8372530942  -26.2858262660  177.3193809896
   H       3.2127584796  -26.1984295523  175.6429052929
   N      -4.9039999625  -20.3469999700  184.2609999998
   H      -5.8679044516  -20.6716083534  184.1648422298
   H      -4.8686109282  -19.9092086755  185.1830112881
   C      -4.6759999722  -19.3319999316  183.2410000147
   H      -3.6958547418  -18.8744401422  183.4088838498
   C      -4.6942260293  -20.0244622609  181.8481522384
   H      -4.3976665103  -21.0614914172  182.0485607799
   H      -5.7245941410  -20.0598918292  181.4762405634
   C      -3.7766478299  -19.4484291731  180.7995643205
   C      -2.3894319457  -19.6286161186  180.9006981666
   H      -1.9777016291  -20.1178772693  181.7809764751
   C      -1.5254804395  -19.2294761621  179.8842462910
   H      -0.4539813821  -19.3734659716  179.9715655676
   C      -2.0523057637  -18.6543642906  178.7199951164
   O      -1.2772906374  -18.3051185740  177.6456886871
   C      -3.4235091611  -18.4091993301  178.6285167464
   H      -3.8179773907  -17.9642966167  177.7230826393
   C      -4.2723632390  -18.8069348306  179.6601546893
   H      -5.3426345067  -18.6534257692  179.5562033031
   C      -5.7569999801  -18.2539999935  183.3009999901
   H      -5.4517874136  -17.1964651290  183.1793805210
   O      -6.9449999805  -18.5479999784  183.4519999941
   H      -0.4794276480  -18.8717563903  177.5734961078
   O      -2.2007670009  -19.7980835271  172.9375834423
   C      -0.9398504665  -20.0019117642  173.0975043715
   O      -0.1010577032  -19.9839529434  172.1642039604
   C      -0.4484405416  -20.2695278596  174.5241905757
   C       0.7288347979  -19.3648328556  174.9187335616
   C       0.3578317410  -17.8926018871  174.6557327895
   N       1.0229524804  -19.5555787020  176.3605177777
   C       1.9515971391  -18.8319906517  176.8417171747
   C       2.0932241276  -18.6408979146  178.3301117756
   O       1.5610862365  -19.4683397010  179.1187600340
   O       2.6840990552  -17.5675594784  178.6341167946
   H       2.6166728920  -18.2209972834  176.2256661151
   H       1.6170987824  -19.6287635807  174.3308588394
   H      -0.1445110034  -21.3200823448  174.6081922258
   H      -1.2704266447  -20.1010833652  175.2260508456
   H       1.1754611411  -17.2191420314  174.9222863630
   H      -0.5201633857  -17.6203002941  175.2509310455