267
Converged     Job 0: Energy -6.5127981099040862e+03 @ (4.223791)
   N      -9.1180000491  -21.2199999479  177.7569999746
   H      -9.1828043940  -20.7789765386  178.6747325490
   H     -10.0202847956  -21.6658905768  177.5941250212
   C      -8.0620000034  -22.2319998629  177.7789995280
   H      -8.0087494106  -22.7113033415  176.7940460150
   C      -6.6936170218  -21.5859536579  178.0830160829
   H      -6.7641539874  -21.0668635593  179.0482748554
   H      -5.9693184030  -22.3958018250  178.2084454905
   C      -6.2149277415  -20.6324944766  177.0203805298
   C      -6.3590946397  -19.2481288914  177.1588813051
   H      -6.8810915587  -18.8514824153  178.0248853188
   C      -5.8055067780  -18.3662888547  176.2339648545
   H      -5.8907818916  -17.2919395426  176.3649797216
   C      -5.0730680055  -18.8603331629  175.1479669135
   O      -4.4691768472  -17.9691945080  174.3174954393
   H      -3.8049421160  -18.4538579176  173.7484575932
   C      -4.9756688953  -20.2478674475  174.9582465026
   H      -4.4120619721  -20.6323020950  174.1146849872
   C      -5.5464285739  -21.1126521568  175.8880592339
   H      -5.4230813210  -22.1847650201  175.7580310288
   C      -8.2990001144  -23.3439999805  178.7920002583
   H      -9.0872233091  -23.2080848876  179.5589603631
   O      -7.5930000424  -24.3580000948  178.7469999533
   N      -4.6170000060  -25.8930000131  181.7980000014
   H      -3.7263657284  -26.3705096497  181.9195272630
   H      -4.6725255377  -25.2120847837  182.5552736912
   C      -4.6079899881  -25.1680000120  180.5259999912
   H      -5.5459037583  -24.6144375132  180.4152131870
   C      -3.4149268869  -24.1701610407  180.4206626288
   H      -3.6097421989  -23.3743531486  181.1478616200
   H      -2.5305543009  -24.7086823533  180.7764110096
   C      -3.1179050076  -23.5536407994  179.0712984290
   C      -2.4963508350  -24.2913962350  178.0485244700
   H      -2.2649066718  -25.3410100100  178.2030078932
   C      -2.1604611990  -23.6890039591  176.8332703540
   H      -1.6773844246  -24.2781194386  176.0587916416
   C      -2.4308493240  -22.3365335302  176.6199697660
   H      -2.1733986569  -21.8687791203  175.6757946465
   C      -3.0410691621  -21.5890015029  177.6284473182
   H      -3.2365755766  -20.5332584891  177.4848561389
   C      -3.3903330875  -22.1981284292  178.8361502278
   H      -3.8541749698  -21.6046296988  179.6151853824
   C      -4.5479999955  -26.2099999995  179.4150000259
   H      -5.2254410615  -26.1078560205  178.5506111802
   O      -3.7239999936  -27.1290000021  179.4700000003
   N       5.4689999849  -19.5070000071  169.0580000126
   H       4.9398619022  -19.5878321907  169.9238247828
   H       4.7833654392  -19.3260861596  168.3256354503
   C       6.3689996579  -18.3689998607  169.1699901832
   H       7.0224677167  -18.3137053146  168.2914320967
   C       5.6862062986  -16.9593817364  169.3467630029
   H       6.4369578310  -16.2263218267  169.6662973336
   H       5.3337239186  -16.6517875294  168.3567875682
   C       4.5320627957  -17.0226397640  170.3148907291
   C       4.7296337987  -16.8956581866  171.6960543220
   H       5.7204382629  -16.6516987515  172.0711171589
   C       3.6758387621  -17.0934214365  172.5911363924
   H       3.8476973384  -17.0017910542  173.6585465553
   C       2.4023688908  -17.4136750433  172.1147292353
   H       1.5820455199  -17.5953279193  172.7986852259
   C       2.1867010680  -17.5176927380  170.7392141393
   H       1.1962557732  -17.7598305821  170.3632151799
   C       3.2431384364  -17.3236778801  169.8491286983
   H       3.0733600926  -17.4157682335  168.7790761974
   C       7.2349901047  -18.6279999895  170.3939999729
   H       8.1666472336  -18.0385802461  170.4865008318
   O       6.8820000411  -19.3885500405  171.2820999323
   N       8.6789999901  -18.1710000025  173.9089999768
   H       8.1431140841  -17.9158904333  173.0838829368
   H       8.6279149998  -19.1820362766  174.0168468945
   C       8.1670000513  -17.4900002097  175.0910000288
   H       8.5821455505  -16.4756689250  175.1651723592
   C       6.6038110879  -17.3231822042  175.1421008416
   H       6.3164910327  -16.7465379406  176.0266521545
   H       6.3227393777  -16.7201888213  174.2720818123
   C       5.8608449326  -18.6190591142  175.1637338974
   N       5.8092784004  -19.5128453983  174.1012451791
   H       6.2188349945  -19.3872640734  173.1764659534
   C       5.1303559321  -20.6121255423  174.4885837860
   H       4.9656451940  -21.4759141882  173.8628143523
   N       4.7364713985  -20.4740603155  175.7495549779
   C       5.1828213364  -19.2394929959  176.1855843445
   H       4.9873735132  -18.8905991424  177.1861943859
   C       8.5620001874  -18.2559997397  176.3419999086
   H       8.4959513661  -17.7191501055  177.3041815773
   O       8.8609997725  -19.4560000962  176.3029999806
   N       6.4539999569  -18.9330000448  179.9349999728
   H       7.0119981326  -18.8329934971  180.7849069516
   C       5.0499999216  -18.8630000637  180.3249899294
   H       6.6834938267  -18.1175197173  179.3660180344
   H       4.4431363199  -18.6767941762  179.4413804647
   C       4.6413498419  -20.2112878433  180.9198860258
   H       5.2404014204  -20.4409994116  181.8062688430
   H       3.5868646954  -20.1832160757  181.2223263525
   C       4.8028246758  -21.3236852561  179.8949308117
   O       4.4216912170  -20.9916487166  178.7000135653
   O       5.2117911427  -22.4467267383  180.2271717143
   C       4.8240000135  -17.7529999402  181.3450001993
   O       5.6180000793  -17.5579999064  182.2749999439
   N       3.7500000343  -16.9869999266  181.1379999698
   H       3.1866752782  -17.1831208616  180.3000073930
   C       3.3700000125  -15.8429999831  181.9809999841
   H       2.5377308082  -15.3669288379  181.4423206878
   C       2.8820635463  -16.2658299992  183.3691436592
   H       2.0417161141  -16.9577892406  183.2662053405
   H       3.6893908287  -16.7639128734  183.9111162938
   H       2.5591747406  -15.3914854871  183.9386675566
   C       4.4379999674  -14.7550000690  182.0470000088
   H       5.1650600949  -14.7034980203  181.2158653778
   O       4.4299999642  -13.9269999991  182.9699999836
   N       6.6309999916  -25.1619999944  184.9889999978
   H       7.5136557837  -25.5693553537  184.6768938250
   H       6.7427178409  -24.1523745988  184.8930415734
   C       5.5939999629  -25.5729999850  184.0540000039
   H       4.6199342069  -25.2512429023  184.4464386372
   C       5.7017784951  -24.9599839056  182.6295088018
   H       6.7029793240  -25.2131211672  182.2405857039
   C       4.6347871622  -25.5058386312  181.6792103653
   H       3.6415084006  -25.3823420794  182.1233832726
   H       4.6574852978  -24.9651588345  180.7279246696
   H       4.7891164810  -26.5699489092  181.4656331101
   O       5.5732728166  -23.5546195326  182.8036929958
   H       5.5032783364  -23.1360172813  181.9148308114
   C       5.5810000258  -27.0930000065  183.9419999995
   H       4.6036803529  -27.6066356377  183.9047977813
   O       6.6349999939  -27.7240000045  183.8350000042
   N      -5.0839999906  -14.2029999618  171.9329999879
   H      -5.5066119749  -14.2802736600  172.8588958947
   H      -5.1237314687  -13.2121992514  171.6951905741
   C      -5.9039998303  -14.9570000149  170.9949998646
   H      -5.5386811111  -14.7470578480  169.9827139174
   C      -5.8328120015  -16.4708936141  171.2527744222
   H      -6.3050834031  -16.6786517792  172.2206615365
   H      -6.4313714326  -16.9852175706  170.4891522358
   C      -4.4062977471  -17.0299995307  171.2735757751
   H      -3.8526317027  -16.5554167865  172.0891511439
   H      -4.4780468219  -18.0922601234  171.5234348405
   C      -3.6259396497  -16.8510754507  169.9676973231
   H      -4.1328368640  -17.3675181978  169.1407593134
   H      -3.5832715220  -15.7905299920  169.6955615908
   C      -2.1787466068  -17.3279597194  170.0568697823
   H      -1.6312895602  -17.1274736148  169.1335346856
   H      -1.6545641590  -16.8449292398  170.8858675931
   N      -2.0893575117  -18.7996512135  170.3189585862
   H      -2.5130354978  -19.3514879027  169.5686093607
   H      -1.1142229101  -19.0940734402  170.4551242747
   H      -2.5176039307  -19.0501005115  171.2646884987
   C      -7.3510001111  -14.4880000258  171.0740001323
   H      -7.8957304293  -14.2686103329  170.1351051229
   O      -7.9140000314  -14.3709999327  172.1699999791
   N       7.0230000125  -12.3300000187  173.6310099674
   H       7.9121392258  -12.6894592062  173.9787533257
   H       7.2333021387  -11.8512426901  172.7558579380
   C       6.4609899441  -11.3960000133  174.5889999299
   H       5.4987935262  -11.0332394181  174.2075708994
   C       6.2341522829  -12.0777146355  175.9561540478
   H       7.2110302979  -12.3805751023  176.3590257833
   H       5.8535397947  -11.3095503146  176.6402609394
   C       5.2984426193  -13.2714763201  175.9913699290
   C       4.3722853277  -13.5576329388  174.9822755139
   H       4.3527507252  -12.9584644992  174.0782804317
   C       3.4733385068  -14.6204052041  175.1197365640
   H       2.7632166089  -14.8263320721  174.3238020849
   C       3.4846624868  -15.4146522420  176.2668749974
   H       2.7833833923  -16.2325117150  176.3909242693
   C       4.4121167414  -15.1454990864  177.2776839587
   H       4.4191929789  -15.7580361840  178.1745679737
   C       5.3121613942  -14.0897108611  177.1332533181
   H       6.0294479410  -13.8819692666  177.9248684945
   C       7.3000101208  -10.1510100023  174.8510000037
   H       8.3633055752  -10.1493424697  174.5360388499
   O       6.7719999760   -9.1959999409  175.4139999661
   N      10.4660000198  -21.5540000106  175.2929999857
   H       9.6767532562  -20.9663800137  175.5333302074
   H      10.9412734110  -21.8412628059  176.1449406023
   C      10.0460101274  -22.7200000152  174.5269999314
   H      10.9125426924  -23.2239006397  174.0779436298
   C       9.2779558370  -23.8025858148  175.3711711975
   H       8.8937035949  -24.5946483470  174.7188965230
   H      10.0084410532  -24.2665892260  176.0437457797
   C       8.1468495967  -23.2216661448  176.1570880050
   N       8.3280908195  -22.4305282191  177.2845271471
   H       9.2141344942  -22.1861130164  177.7057069106
   C       7.1311510002  -21.9843077100  177.7140190441
   H       7.0024833822  -21.3029713584  178.5399414892
   N       6.1729047648  -22.4682109396  176.9340576932
   C       6.7897849909  -23.2335963903  175.9565672387
   H       6.2164585559  -23.7313659593  175.1920396979
   C       9.1299997994  -22.2710000077  173.4010001563
   H       8.8484546886  -23.0246072126  172.6443784274
   O       8.6790001359  -21.1230000064  173.3609998879
   N      -1.7689998519  -28.7070002105  180.6850100831
   H      -2.5682790770  -28.0941841772  180.5524606432
   H      -1.4540412103  -28.9425449891  179.7444754682
   C      -0.7059894384  -27.9489903493  181.3350002631
   H       0.1707718260  -28.6001449059  181.4505138736
   C      -0.2652499726  -26.7092540298  180.5176999239
   H       0.1151238551  -27.0790909801  179.5565896365
   H      -1.1694390208  -26.1323615468  180.3052178776
   C       0.7935391339  -25.8335749821  181.1881747344
   H       0.3668180767  -25.3011429113  182.0474980666
   H       1.6017531889  -26.4686780929  181.5720246634
   C       1.4381518021  -24.8214052823  180.2451832904
   H       2.2013056360  -24.2686329174  180.7922410372
   H       1.9334240018  -25.3341596702  179.4120922609
   N       0.4772935974  -23.8450829829  179.7301813042
   H      -0.4159595066  -24.1709197369  179.3810962793
   C       0.7809713492  -22.5599238035  179.5133056095
   N       2.0341595155  -22.1212552586  179.7375148407
   H       2.1931896793  -21.1549597869  179.4536357840
   H       2.7845527291  -22.7545064604  179.4805822023
   N      -0.1382058092  -21.6813424145  179.1213790276
   H       0.1755638264  -20.7189259436  178.9555934314
   H      -1.1279311328  -21.8920264258  179.1459080027
   C      -1.1290003425  -27.5200001435  182.7279998797
   H      -0.4159517426  -27.6479854059  183.5611542523
   O      -2.2249999544  -26.9879998964  182.9209999623
  Fe       4.1582599202  -21.9975385958  177.0099870173
   O       2.5732242269  -21.7025011342  176.8189203743
   C       3.7309153508  -24.4740969665  176.7718347212
   O       3.9057182813  -23.8619867403  175.6816989358
   O       3.8186238613  -23.8357371676  177.8796100998
   C       3.3895982658  -25.9409316597  176.8038468034
   H       2.2987938458  -26.0440911353  176.8556023538
   H       3.8169443734  -26.4118355790  177.6921468452
   H       3.7435691091  -26.4386907415  175.8988796999
   N      -4.9040000212  -20.3469999882  184.2610000004
   H      -5.8714628744  -20.6638175490  184.1771635311
   H      -4.8500719713  -19.9097340824  185.1816563293
   C      -4.6760000329  -19.3319999325  183.2409999387
   H      -3.7028111310  -18.8644800319  183.4277257291
   C      -4.6392889466  -19.9870269306  181.8373003043
   H      -4.1151284220  -20.9399702381  181.9721165481
   H      -5.6662134567  -20.2247163325  181.5321415671
   C      -3.9381186295  -19.1675326830  180.7797424967
   C      -2.5695365942  -19.3508363469  180.5394199405
   H      -2.0175523106  -20.0828960116  181.1248254384
   C      -1.8988741012  -18.6409704989  179.5461622352
   H      -0.8372067735  -18.7945190374  179.3839119119
   C      -2.5998951738  -17.7223229022  178.7515146230
   O      -2.0082701749  -17.0412539073  177.7351293025
   C      -3.9574497760  -17.4912416113  179.0117184241
   H      -4.4959390272  -16.7766998753  178.3987442413
   C      -4.6125974546  -18.2132222818  180.0073726667
   H      -5.6752285558  -18.0470608217  180.1686863051
   C      -5.7570001191  -18.2540001038  183.3010000570
   H      -5.4517343331  -17.1964366855  183.1838561810
   O      -6.9449999892  -18.5479999688  183.4519999689
   H      -1.1410626849  -17.4714094277  177.4817405327
   O      -2.6346752831  -19.2480181118  172.8820793761
   C      -1.4135593023  -19.1996259699  173.2951837581
   O      -0.4198886881  -19.2721560105  172.5412603533
   C      -1.2019153851  -19.0620398425  174.8049160540
   C      -0.0189294206  -18.1467860018  175.1380748436
   C      -0.2886694957  -16.6952229465  174.7298558828
   N       0.2360678607  -18.1921879867  176.5826741926
   C       1.3918713872  -18.5676032779  176.9603987678
   C       1.8257081182  -18.4956101935  178.4061158593
   O       1.3803997402  -19.3276527881  179.2426804153
   O       2.6354499221  -17.5578136554  178.6193883738
   H       2.1689264239  -18.8638582201  176.2428220735
   H       0.8617115764  -18.5200888532  174.5995970262
   H      -0.9964157754  -20.0633160872  175.2033052048
   H      -2.1120309952  -18.6968935509  175.2876552674
   H       0.5689720494  -16.0600179940  174.9744961243
   H      -1.1703194450  -16.3072065950  175.2512563734
   H      -0.4675752164  -16.6342308009  173.6517642391
267
Converged     Job 1: Energy -6.5127980943304447e+03 @ (4.072262)
   N      -9.1180001395  -21.2199997114  177.7570000207
   H      -9.1820544688  -20.7782469153  178.6744295495
   H     -10.0204845839  -21.6658305876  177.5950591284
   C      -8.0620001891  -22.2319996222  177.7789999637
   H      -8.0096727555  -22.7118857086  176.7942385382
   C      -6.6939508988  -21.5846397045  178.0799971297
   H      -6.7641829032  -21.0622202039  179.0434511757
   H      -5.9687532572  -22.3933412409  178.2074993647
   C      -6.2176952007  -20.6349445801  177.0128820631
   C      -6.3765064626  -19.2508352758  177.1382282632
   H      -6.9102903906  -18.8521124511  177.9961123012
   C      -5.8232811569  -18.3716259577  176.2105962434
   H      -5.9194618664  -17.2969609937  176.3318795533
   C      -5.0754147804  -18.8681461672  175.1360628673
   O      -4.4675907390  -17.9789400886  174.3065813935
   H      -3.7996779660  -18.4644049684  173.7427952641
   C      -4.9673854726  -20.2561256794  174.9564576304
   H      -4.3947341741  -20.6422899130  174.1198430768
   C      -5.5385348955  -21.1183089292  175.8884261151
   H      -5.4068025459  -22.1903719418  175.7669658561
   C      -8.2990001532  -23.3439998918  178.7920001732
   H      -9.0876330519  -23.2084036114  179.5585957798
   O      -7.5930000312  -24.3580000717  178.7470000655
   N      -4.6170000697  -25.8930000777  181.7980000933
   H      -3.7263797878  -26.3705468177  181.9194138670
   H      -4.6723506733  -25.2120518055  182.5552552066
   C      -4.6079899954  -25.1680000179  180.5260002429
   H      -5.5457113976  -24.6141421938  180.4151899737
   C      -3.4144481729  -24.1707139950  180.4207461714
   H      -3.6095002840  -23.3739021868  181.1467687019
   H      -2.5301929732  -24.7089064830  180.7774140046
   C      -3.1166866852  -23.5564704807  179.0707232848
   C      -2.4976343489  -24.2973615586  178.0487574712
   H      -2.2683197333  -25.3471694113  178.2047290744
   C      -2.1621114696  -23.6979488120  176.8320980220
   H      -1.6816532349  -24.2893626537  176.0577496107
   C      -2.4299834013  -22.3453528981  176.6170581671
   H      -2.1742574235  -21.8807140612  175.6711458069
   C      -3.0364336986  -21.5942749149  177.6251247310
   H      -3.2297758317  -20.5383456431  177.4797851256
   C      -3.3860858240  -22.2006680677  178.8340733800
   H      -3.8472359531  -21.6048403747  179.6128505733
   C      -4.5479999442  -26.2099999389  179.4149999813
   H      -5.2254091820  -26.1078918408  178.5505881963
   O      -3.7240000518  -27.1290000675  179.4700000430
   N       5.4689999763  -19.5070000950  169.0580001589
   H       4.9389966018  -19.5874625992  169.9232615492
   H       4.7840968623  -19.3267572579  168.3248337600
   C       6.3689994839  -18.3689998709  169.1699904910
   H       7.0220467430  -18.3131591368  168.2912005391
   C       5.6857226776  -16.9592469905  169.3485689347
   H       6.4356801862  -16.2263810017  169.6702950674
   H       5.3334382792  -16.6501091011  168.3590117718
   C       4.5318611507  -17.0286615066  170.3161429728
   C       4.7287736493  -16.9038867986  171.6975433526
   H       5.7170510931  -16.6498312393  172.0726073335
   C       3.6783100932  -17.1190466485  172.5925871900
   H       3.8494596190  -17.0297165329  173.6603453129
   C       2.4093292393  -17.4553512158  172.1154725012
   H       1.5928140873  -17.6550998323  172.7984800519
   C       2.1931883736  -17.5536081459  170.7396167506
   H       1.2055961219  -17.8067919996  170.3635393734
   C       3.2460095602  -17.3414475515  169.8496397278
   H       3.0766383926  -17.4306197849  168.7792869439
   C       7.2349902371  -18.6279999589  170.3939998628
   H       8.1665600211  -18.0384550456  170.4865925789
   O       6.8819999631  -19.3885500019  171.2820999871
   N       8.6790000472  -18.1709999164  173.9089999541
   H       8.1442188084  -17.9144102079  173.0836101846
   H       8.6263098661  -19.1820593772  174.0157525469
   C       8.1670001041  -17.4900002059  175.0910000493
   H       8.5852998900  -16.4768584177  175.1658179992
   C       6.6056700422  -17.3172254934  175.1397821435
   H       6.3191595893  -16.7402588272  176.0243274471
   H       6.3279490630  -16.7126461399  174.2697843527
   C       5.8576948275  -18.6097413611  175.1600544431
   N       5.8026096857  -19.5039263928  174.0981517247
   H       6.2144890523  -19.3816132597  173.1739575418
   C       5.1139000503  -20.5974497593  174.4844873790
   H       4.9447731391  -21.4609354739  173.8595007929
   N       4.7184261091  -20.4553194564  175.7445130571
   C       5.1735355236  -19.2242664603  176.1809507808
   H       4.9775847848  -18.8719745673  177.1801644051
   C       8.5620000933  -18.2559998178  176.3419999412
   H       8.4967470210  -17.7189106864  177.3040920057
   O       8.8609998697  -19.4560000389  176.3029999938
   N       6.4539999338  -18.9330000761  179.9349999608
   H       7.0123961911  -18.8328399691  180.7846352415
   C       5.0499998945  -18.8630000724  180.3249900091
   H       6.6834739536  -18.1178086626  179.3655764554
   H       4.4430121893  -18.6776222608  179.4419636856
   C       4.6433330629  -20.2120977472  180.9193070342
   H       5.2467547500  -20.4450751233  181.8018877645
   H       3.5903557301  -20.1846642855  181.2267947987
   C       4.7991162066  -21.3201415510  179.8888266109
   O       4.4143204406  -20.9791805612  178.6970755927
   O       5.2073499639  -22.4456222911  180.2134719213
   C       4.8239999967  -17.7529998770  181.3450001379
   O       5.6180001294  -17.5579998548  182.2749999597
   N       3.7500000646  -16.9869999163  181.1380000347
   H       3.1886525516  -17.1843388669  180.2993097644
   C       3.3700000093  -15.8429999004  181.9809999448
   H       2.5376371972  -15.3668334678  181.4426012090
   C       2.8822829321  -16.2660899673  183.3691465107
   H       2.0419378030  -16.9580454411  183.2662000636
   H       3.6897017233  -16.7642255108  183.9109268742
   H       2.5594629032  -15.3918212666  183.9388206226
   C       4.4380000414  -14.7550000805  182.0470000746
   H       5.1650426366  -14.7034725560  181.2158469647
   O       4.4299999587  -13.9269999842  182.9699999811
   N       6.6310000181  -25.1620000168  184.9889999947
   H       7.5137058720  -25.5692115275  184.6768798684
   H       6.7427284397  -24.1523241588  184.8936714454
   C       5.5939999554  -25.5729999781  184.0540000294
   H       4.6198835412  -25.2506956034  184.4457550030
   C       5.7026740299  -24.9619971138  182.6281543683
   H       6.7044927326  -25.2152598560  182.2410090233
   C       4.6371554839  -25.5103083944  181.6776261700
   H       3.6433790756  -25.3880243460  182.1209663524
   H       4.6596727834  -24.9700514394  180.7260073090
   H       4.7932405616  -26.5742555411  181.4646456493
   O       5.5728476484  -23.5560572997  182.7980877187
   H       5.5017341896  -23.1403234561  181.9080819806
   C       5.5810000342  -27.0930000056  183.9420000184
   H       4.6036883131  -27.6066218362  183.9046244959
   O       6.6350000006  -27.7240000030  183.8349999916
   N      -5.0839999782  -14.2029999561  171.9329999745
   H      -5.5067778719  -14.2801294375  172.8588356063
   H      -5.1235817817  -13.2122148234  171.6950971051
   C      -5.9039998004  -14.9569999299  170.9949997422
   H      -5.5386870961  -14.7470977589  169.9827064706
   C      -5.8328231737  -16.4709008193  171.2528091736
   H      -6.3043294650  -16.6785597353  172.2210883843
   H      -6.4321366621  -16.9851267154  170.4897016016
   C      -4.4064217675  -17.0303277582  171.2721071994
   H      -3.8518297397  -16.5565574145  172.0875164429
   H      -4.4781878176  -18.0927256554  171.5214356678
   C      -3.6272407203  -16.8505627013  169.9656964220
   H      -4.1362585086  -17.3641073039  169.1382336447
   H      -3.5822921349  -15.7895621751  169.6957139623
   C      -2.1813372254  -17.3315614186  170.0524649766
   H      -1.6337900137  -17.1295349158  169.1295208268
   H      -1.6553168639  -16.8530427964  170.8829386235
   N      -2.0962026708  -18.8043079885  170.3095721142
   H      -2.5234726096  -19.3524590598  169.5585667196
   H      -1.1216545264  -19.1021035253  170.4431368198
   H      -2.5223397575  -19.0561245931  171.2557480372
   C      -7.3510000943  -14.4880000261  171.0740002095
   H      -7.8957391293  -14.2686129581  170.1351082409
   O      -7.9140000391  -14.3709999650  172.1699999739
   N       7.0229999846  -12.3300001116  173.6310099454
   H       7.9122649094  -12.6892703289  173.9786301919
   H       7.2330873343  -11.8512480520  172.7557978802
   C       6.4609897177  -11.3960000783  174.5889998066
   H       5.4980486739  -11.0342263112  174.2085403210
   C       6.2370629411  -12.0767632936  175.9573175334
   H       7.2153780235  -12.3753651401  176.3599674802
   H       5.8544401744  -11.3087544711  176.6404481490
   C       5.3061753355  -13.2741330077  175.9961982009
   C       4.3838295632  -13.5699587827  174.9864593593
   H       4.3635675176  -12.9753683256  174.0794886899
   C       3.4903326002  -14.6369471279  175.1270620154
   H       2.7835577241  -14.8507703035  174.3302829901
   C       3.5031942412  -15.4254692961  176.2780661154
   H       2.8075194072  -16.2477144025  176.4049127308
   C       4.4268717123  -15.1464838438  177.2897118000
   H       4.4359749111  -15.7553295266  178.1891833043
   C       5.3215154846  -14.0865835267  177.1422600120
   H       6.0359799978  -13.8710819344  177.9343449611
   C       7.3000102138  -10.1510101863  174.8510000834
   H       8.3634866617  -10.1496845196  174.5366489296
   O       6.7719999815   -9.1959999126  175.4139999159
   N      10.4660000860  -21.5539999847  175.2930000569
   H       9.6775329220  -20.9623826310  175.5259120684
   H      10.9342732704  -21.8408266485  176.1488907187
   C      10.0460101019  -22.7199997389  174.5269998113
   H      10.9111380829  -23.2296044779  174.0823639015
   C       9.2653900635  -23.7955724915  175.3712829483
   H       8.8813679073  -24.5882848103  174.7196571910
   H       9.9890166572  -24.2608220704  176.0504334908
   C       8.1315059420  -23.2071214916  176.1491694678
   N       8.3114737611  -22.4115299444  177.2736979581
   H       9.1972912374  -22.1647817880  177.6939594479
   C       7.1143658926  -21.9629420082  177.7000599525
   H       6.9858046747  -21.2775047481  178.5226712227
   N       6.1560741251  -22.4495532301  176.9216642806
   C       6.7740144051  -23.2193267088  175.9478247147
   H       6.2008699308  -23.7203865744  175.1852263649
   C       9.1299998568  -22.2709999943  173.4010000355
   H       8.8470712704  -23.0250488573  172.6453623415
   O       8.6790000890  -21.1229999837  173.3609999431
   N      -1.7689997253  -28.7070004874  180.6850101112
   H      -2.5680963231  -28.0940264018  180.5520299290
   H      -1.4537979065  -28.9428836425  179.7446447915
   C      -0.7059895853  -27.9489906037  181.3350004790
   H       0.1704575291  -28.6005834662  181.4507607860
   C      -0.2642299027  -26.7103496198  180.5175146941
   H       0.1103143888  -27.0809331123  179.5543527270
   H      -1.1664554353  -26.1287530355  180.3094852094
   C       0.8015375910  -25.8401862002  181.1836113667
   H       0.3809376163  -25.3048500669  182.0441695830
   H       1.6081511223  -26.4791429371  181.5643873151
   C       1.4460048637  -24.8325561339  180.2358637408
   H       2.2105368613  -24.2778746907  180.7787495841
   H       1.9392627784  -25.3491725412  179.4041274598
   N       0.4849825107  -23.8582095521  179.7178797900
   H      -0.4065262365  -24.1862255162  179.3662391661
   C       0.7834121152  -22.5701266343  179.5121908591
   N       2.0337374437  -22.1272073705  179.7437675393
   H       2.1840199665  -21.1550988896  179.4733721159
   H       2.7870056707  -22.7518112930  179.4741985967
   N      -0.1380493392  -21.6923457123  179.1237065714
   H       0.1752831625  -20.7294268500  178.9627194514
   H      -1.1276294045  -21.9036654921  179.1481452611
   C      -1.1290002314  -27.5200002065  182.7279999409
   H      -0.4159694385  -27.6480618225  183.5611548007
   O      -2.2250000191  -26.9880000450  182.9209999762
  Fe       4.1364463639  -21.9736146281  177.0070165511
   O       2.5516063899  -21.6712601088  176.8190416854
   C       3.7078583561  -24.4502536874  176.7628056437
   O       3.8813696204  -23.8336244969  175.6749929910
   O       3.7953296322  -23.8162217668  177.8728146731
   C       3.3686026398  -25.9177318799  176.7886097315
   H       2.2779143498  -26.0226798543  176.8390682426
   H       3.7960262091  -26.3917117119  177.6752364881
   H       3.7239966354  -26.4112337402  175.8818648690
   N      -4.9040002899  -20.3470007618  184.2609990356
   H      -5.8710841484  -20.6647434913  184.1760976888
   H      -4.8518420491  -19.9095858222  185.1817329458
   C      -4.6760011885  -19.3320000144  183.2409990538
   H      -3.7023652946  -18.8651592668  183.4268208774
   C      -4.6416660904  -19.9898658577  181.8383389276
   H      -4.1307660912  -20.9493805549  181.9783472247
   H      -5.6699049611  -20.2151334373  181.5286649635
   C      -3.9248971734  -19.1837257714  180.7813979897
   C      -2.5501810796  -19.3614961884  180.5731673840
   H      -2.0051485419  -20.0762136242  181.1859556139
   C      -1.8650929954  -18.6679668291  179.5785333822
   H      -0.7989534781  -18.8147332005  179.4414625773
   C      -2.5575994185  -17.7753793507  178.7474276950
   O      -1.9505865634  -17.1153286254  177.7256983611
   C      -3.9215735929  -17.5494963718  178.9747420792
   H      -4.4536256342  -16.8563247122  178.3325434614
   C      -4.5909180201  -18.2526623224  179.9748086580
   H      -5.6576952168  -18.0918801615  180.1117336592
   C      -5.7570006784  -18.2540005545  183.3010002975
   H      -5.4517553053  -17.1963970335  183.1836767167
   O      -6.9449999227  -18.5480002066  183.4519995714
   H      -1.0901954528  -17.5636793277  177.4793899685
   O      -2.6307853714  -19.2628830689  172.8739894312
   C      -1.4069413768  -19.2243080002  173.2799397805
   O      -0.4186161718  -19.2875086795  172.5180075111
   C      -1.1857540500  -19.1149544218  174.7905073265
   C       0.0238565219  -18.2409475271  175.1355534478
   C      -0.2059787722  -16.7776581865  174.7425362946
   N       0.2753576115  -18.3030455400  176.5800104641
   C       1.4406954379  -18.6447136339  176.9603719340
   C       1.8580421005  -18.5407041173  178.4088267040
   O       1.3974893699  -19.3454116635  179.2636790284
   O       2.6630324185  -17.5951421733  178.6072338674
   H       2.2297626440  -18.9182972471  176.2481211890
   H       0.8952591932  -18.6318640529  174.5944953857
   H      -1.0118707381  -20.1277910660  175.1738201551
   H      -2.0841575967  -18.7298309596  175.2801389987
   H       0.6714107983  -16.1695537278  174.9851477443
   H      -1.0711452614  -16.3690384281  175.2755821352